 &FCI NORB=  19,NELEC= 4,MS2=0,
  ORBSYM=1,1,1,4,3,1,1,4,3,1,3,4,2,1,1,1,3,4,1
  ISYM=1,
 &END
 1.6484436208131    1    1    1    1
 -0.08866262108072473    2    1    1    1
 0.00858873516102979    2    1    2    1
 0.3409734648923622    2    2    1    1
 0.006247126823172315    2    2    2    1
 0.4784098174667792    2    2    2    2
 -0.06113782389171773    3    1    1    1
 0.004243603428538798    3    1    2    1
 -0.005719284985725173    3    1    2    2
 0.004296047926282629    3    1    3    1
 0.004045696846084538    3    2    1    1
 -0.001736362719494981    3    2    2    1
 -0.04013571513155444    3    2    2    2
 0.000395943364740918    3    2    3    1
 0.007406724550703439    3    2    3    2
 0.2316064281294321    3    3    1    1
 -0.002988457650698619    3    3    2    1
 0.1576234054449038    3    3    2    2
 0.00130456936758721    3    3    3    1
 0.006111498313839625    3    3    3    2
 0.2061286813307639    3    3    3    3
 0.0002803097009215408    4    1    4    1
 0.0004880244168110353    4    2    4    1
 0.005652649272247958    4    2    4    2
 0.0007516324184634666    4    3    4    1
 0.0065054788961136    4    3    4    2
 0.02174051248186195    4    3    4    3
 0.1749712343637282    4    4    1    1
 -0.000345091331091511    4    4    2    1
 0.1563030896116871    4    4    2    2
 0.000106416194742896    4    4    3    1
 0.001919946707341351    4    4    3    2
 0.1475330757554458    4    4    3    3
 0.1476758661406298    4    4    4    4
 0.0002803097009215408    5    1    5    1
 0.0004880244168110348    5    2    5    1
 0.005652649272247948    5    2    5    2
 0.0007516324184634672    5    3    5    1
 0.006505478896113601    5    3    5    2
 0.02174051248186195    5    3    5    3
 0.008747061858414848    5    4    5    4
 0.1749712343637281    5    5    1    1
 -0.0003450913310915136    5    5    2    1
 0.156303089611687    5    5    2    2
 0.0001064161947428906    5    5    3    1
 0.001919946707341351    5    5    3    2
 0.1475330757554458    5    5    3    3
 0.1301817424238    5    5    4    4
 0.1476758661406296    5    5    5    5
 -0.01582934296066017    6    1    1    1
 0.0001366922836422265    6    1    2    1
 -0.006184526782804472    6    1    2    2
 0.001739643628999833    6    1    3    1
 0.0008195527978202395    6    1    3    2
 0.001698796866716589    6    1    3    3
 0.000101671899002316    6    1    4    4
 0.000101671899002317    6    1    5    5
 0.001288574786579873    6    1    6    1
 -0.0359886454098022    6    2    1    1
 -0.002013664668061935    6    2    2    1
 -0.07539430096093334    6    2    2    2
 0.001358545040588605    6    2    3    1
 0.01026138859864707    6    2    3    2
 -0.005134774461048972    6    2    3    3
 -0.002728114304143431    6    2    4    4
 -0.002728114304143426    6    2    5    5
 0.001652802342607476    6    2    6    1
 0.02104082045715165    6    2    6    2
 0.04964799917471036    6    3    1    1
 -0.0006557246506406354    6    3    2    1
 0.03308067241410799    6    3    2    2
 3.097468463100866e-05    6    3    3    1
 -0.000425034602170816    6    3    3    2
 0.0139061313837284    6    3    3    3
 0.01323395234548768    6    3    4    4
 0.01323395234548767    6    3    5    5
 0.0001862551864216082    6    3    6    1
 -0.004298183713695856    6    3    6    2
 0.01048800310470385    6    3    6    3
 0.0004234186203721262    6    4    4    1
 0.006483707850904552    6    4    4    2
 0.008178319388722497    6    4    4    3
 0.01290449867183804    6    4    6    4
 0.0004234186203721262    6    5    5    1
 0.006483707850904546    6    5    5    2
 0.0081783193887225    6    5    5    3
 0.01290449867183804    6    5    6    5
 0.1744108892487113    6    6    1    1
 0.0005310533028622411    6    6    2    1
 0.1881263315615023    6    6    2    2
 -0.0006845832942108146    6    6    3    1
 -0.006523664778882854    6    6    3    2
 0.1279737861793138    6    6    3    3
 0.1259629510335305    6    6    4    4
 0.1259629510335305    6    6    5    5
 -0.0006948980368261324    6    6    6    1
 -0.009053702220742444    6    6    6    2
 0.01014173194131964    6    6    6    3
 0.1400466269528302    6    6    6    6
 0.09057053282055651    7    1    1    1
 -0.005398387759777478    7    1    2    1
 0.009325787173626815    7    1    2    2
 -0.00634113522806876    7    1    3    1
 -0.0006761419494716106    7    1    3    2
 -0.002112031484130956    7    1    3    3
 -2.653038500674833e-05    7    1    4    4
 -2.653038500674995e-05    7    1    5    5
 -0.002953716825492637    7    1    6    1
 -0.002241038142012927    7    1    6    2
 -7.364681218962186e-05    7    1    6    3
 0.00114959936332223    7    1    6    6
 0.009995655244932391    7    1    7    1
 -0.03189703068176788    7    2    1    1
 0.0006595481723205409    7    2    2    1
 -0.0147064426273307    7    2    2    2
 0.000363099226111776    7    2    3    1
 -9.152975795352915e-05    7    2    3    2
 -0.009683342484890559    7    2    3    3
 -0.003743694893053392    7    2    4    4
 -0.003743694893053391    7    2    5    5
 6.083877965058322e-05    7    2    6    1
 0.00354894314494881    7    2    6    2
 -0.002983800003879517    7    2    6    3
 -0.002095934870178346    7    2    6    6
 -0.0005020313849341787    7    2    7    1
 0.002762948190621305    7    2    7    2
 -0.09917426001146643    7    3    1    1
 0.003023057617343433    7    3    2    1
 -0.03323752321119482    7    3    2    2
 -0.0007975992929627736    7    3    3    1
 -0.002375198711083147    7    3    3    2
 -0.0379262056948657    7    3    3    3
 -0.01562848540320538    7    3    4    4
 -0.01562848540320538    7    3    5    5
 -0.001438021754434881    7    3    6    1
 0.002451246243298705    7    3    6    2
 -0.01455522146521931    7    3    6    3
 -0.01590544132333603    7    3    6    6
 0.001448236780640006    7    3    7    1
 0.006335557781328095    7    3    7    2
 0.0352789358213428    7    3    7    3
 -0.0002468546454888835    7    4    4    1
 0.003422228913648393    7    4    4    2
 0.007651689775346351    7    4    4    3
 0.006682989596215059    7    4    6    4
 0.01190342780599596    7    4    7    4
 -0.0002468546454888839    7    5    5    1
 0.003422228913648388    7    5    5    2
 0.007651689775346341    7    5    5    3
 0.006682989596215051    7    5    6    5
 0.01190342780599595    7    5    7    5
 -0.04648885094972227    7    6    1    1
 0.002257715759820704    7    6    2    1
 0.008327381422428679    7    6    2    2
 -0.0008384754817460692    7    6    3    1
 -0.004565277186433659    7    6    3    2
 -0.03114400755703034    7    6    3    3
 -0.003835552538291615    7    6    4    4
 -0.003835552538291626    7    6    5    5
 -0.001252870314569456    7    6    6    1
 0.0005989104040556051    7    6    6    2
 -0.001799115177314846    7    6    6    3
 0.005337573770611661    7    6    6    6
 0.001427641462604871    7    6    7    1
 0.004665725732572819    7    6    7    2
 0.01383294027321906    7    6    7    3
 0.01976303876867462    7    6    7    6
 0.2936426346032533    7    7    1    1
 -0.005022516882178891    7    7    2    1
 0.1762325530968417    7    7    2    2
 0.001273412547298461    7    7    3    1
 0.005689858994213095    7    7    3    2
 0.196787467527039    7    7    3    3
 0.1495454940921573    7    7    4    4
 0.1495454940921573    7    7    5    5
 0.002315196671416029    7    7    6    1
 -0.005767174353909737    7    7    6    2
 0.02352107907253246    7    7    6    3
 0.1362073529643198    7    7    6    6
 -0.002206715336194494    7    7    7    1
 -0.01150885756038479    7    7    7    2
 -0.05271038086102226    7    7    7    3
 -0.02982800931485175    7    7    7    6
 0.2128436232660837    7    7    7    7
 0.001541771957975691    8    1    4    1
 0.002218179785007456    8    1    4    2
 0.003244730377656267    8    1    4    3
 0.001870545321410822    8    1    6    4
 -0.00109608504908317    8    1    7    4
 0.008736833953708938    8    1    8    1
 0.001009787536020433    8    2    4    1
 0.006657432741039499    8    2    4    2
 0.006823039654997087    8    2    4    3
 0.004989687819763705    8    2    6    4
 0.0001432922731391436    8    2    7    4
 0.004733853394335507    8    2    8    1
 0.01124966013225152    8    2    8    2
 0.001078460800325921    8    3    4    1
 0.004305093238423536    8    3    4    2
 0.01029886064345124    8    3    4    3
 0.005444243120583063    8    3    6    4
 -0.004009195998095817    8    3    7    4
 0.004796683323111906    8    3    8    1
 0.007236305419807997    8    3    8    2
 0.01402940141576877    8    3    8    3
 0.0807042374693418    8    4    1    1
 -0.0008846746080274288    8    4    2    1
 0.04361560934060426    8    4    2    2
 3.438631985495346e-06    8    4    3    1
 0.001490329867774673    8    4    3    2
 0.03421221543037322    8    4    3    3
 0.01976261149673027    8    4    4    4
 0.01950078519691068    8    4    5    5
 0.0002088689641365373    8    4    6    1
 -0.004535550638854094    8    4    6    2
 0.01009243278602428    8    4    6    3
 0.01578627768179202    8    4    6    6
 0.0001413672631216421    8    4    7    1
 -0.005845099291292947    8    4    7    2
 -0.02012605452220105    8    4    7    3
 -0.009843949199263652    8    4    7    6
 0.03933621012688616    8    4    7    7
 0.0228813339128302    8    4    8    4
 0.0001309131499097999    8    5    5    4
 0.002980695604336932    8    5    8    5
 0.000471586583150346    8    6    4    1
 0.000866346753159163    8    6    4    2
 0.005500301216938707    8    6    4    3
 -0.000973909901970067    8    6    6    4
 -0.002873695684088988    8    6    7    4
 0.002057023905896862    8    6    8    1
 0.002556048786550496    8    6    8    2
 0.006214143863058938    8    6    8    3
 0.005259796205285786    8    6    8    6
 -0.001594260622242042    8    7    4    1
 -0.007396637907653783    8    7    4    2
 -0.01842929320592843    8    7    4    3
 -0.009557416256126267    8    7    6    4
 -0.001444633511075783    8    7    7    4
 -0.007218957757437683    8    7    8    1
 -0.01060368373279151    8    7    8    2
 -0.01620350114124173    8    7    8    3
 -0.007382101496232245    8    7    8    6
 0.02632195385731402    8    7    8    7
 0.3466098521262965    8    8    1    1
 -0.003315938988183628    8    8    2    1
 0.2219235581263362    8    8    2    2
 -0.0008448945482206809    8    8    3    1
 0.0033859408399316    8    8    3    2
 0.1878572871268075    8    8    3    3
 0.1632454737775784    8    8    4    4
 0.1504959220380334    8    8    5    5
 0.0002064967224422429    8    8    6    1
 -0.01282848763646824    8    8    6    2
 0.02877135603329867    8    8    6    3
 0.1441285799094699    8    8    6    6
 0.001872768197023396    8    8    7    1
 -0.01508385716179545    8    8    7    2
 -0.05147159347084196    8    8    7    3
 -0.02225469189145282    8    8    7    6
 0.2082537813089268    8    8    7    7
 0.05312604590161673    8    8    8    4
 0.2477001229365422    8    8    8    8
 0.001541771957975691    9    1    5    1
 0.002218179785007455    9    1    5    2
 0.00324473037765627    9    1    5    3
 0.001870545321410823    9    1    6    5
 -0.001096085049083171    9    1    7    5
 0.008736833953708945    9    1    9    1
 0.001009787536020434    9    2    5    1
 0.006657432741039505    9    2    5    2
 0.006823039654997096    9    2    5    3
 0.004989687819763713    9    2    6    5
 0.0001432922731391437    9    2    7    5
 0.004733853394335514    9    2    9    1
 0.01124966013225155    9    2    9    2
 0.001078460800325922    9    3    5    1
 0.004305093238423536    9    3    5    2
 0.01029886064345125    9    3    5    3
 0.005444243120583067    9    3    6    5
 -0.004009195998095819    9    3    7    5
 0.004796683323111906    9    3    9    1
 0.007236305419808011    9    3    9    2
 0.01402940141576878    9    3    9    3
 0.000130913149909802    9    4    5    4
 0.002980695604336932    9    4    8    5
 0.002980695604336933    9    4    9    4
 0.08070423746934188    9    5    1    1
 -0.0008846746080274281    9    5    2    1
 0.04361560934060432    9    5    2    2
 3.438631985494272e-06    9    5    3    1
 0.001490329867774673    9    5    3    2
 0.03421221543037328    9    5    3    3
 0.01950078519691074    9    5    4    4
 0.01976261149673032    9    5    5    5
 0.000208868964136538    9    5    6    1
 -0.004535550638854099    9    5    6    2
 0.01009243278602429    9    5    6    3
 0.01578627768179208    9    5    6    6
 0.0001413672631216308    9    5    7    1
 -0.005845099291292958    9    5    7    2
 -0.02012605452220104    9    5    7    3
 -0.00984394919926364    9    5    7    6
 0.03933621012688628    9    5    7    7
 0.0169199427041563    9    5    8    4
 0.04556823985054136    9    5    8    8
 0.02288133391283022    9    5    9    5
 0.0004715865831503461    9    6    5    1
 0.0008663467531591651    9    6    5    2
 0.005500301216938712    9    6    5    3
 -0.0009739099019700608    9    6    6    5
 -0.002873695684088985    9    6    7    5
 0.002057023905896862    9    6    9    1
 0.002556048786550499    9    6    9    2
 0.006214143863058938    9    6    9    3
 0.005259796205285786    9    6    9    6
 -0.001594260622242042    9    7    5    1
 -0.007396637907653777    9    7    5    2
 -0.01842929320592844    9    7    5    3
 -0.009557416256126263    9    7    6    5
 -0.00144463351107579    9    7    7    5
 -0.007218957757437681    9    7    9    1
 -0.01060368373279151    9    7    9    2
 -0.01620350114124173    9    7    9    3
 -0.007382101496232255    9    7    9    6
 0.02632195385731391    9    7    9    7
 0.006374775869772432    9    8    5    4
 0.003778903025537746    9    8    8    5
 0.003778903025537747    9    8    9    4
 0.01247132265811664    9    8    9    8
 0.3466098521262967    9    9    1    1
 -0.003315938988183626    9    9    2    1
 0.2219235581263364    9    9    2    2
 -0.0008448945482206793    9    9    3    1
 0.003385940839931615    9    9    3    2
 0.1878572871268075    9    9    3    3
 0.1504959220380336    9    9    4    4
 0.1632454737775784    9    9    5    5
 0.0002064967224422532    9    9    6    1
 -0.01282848763646825    9    9    6    2
 0.02877135603329867    9    9    6    3
 0.14412857990947    9    9    6    6
 0.001872768197023421    9    9    7    1
 -0.01508385716179541    9    9    7    2
 -0.05147159347084197    9    9    7    3
 -0.02225469189145287    9    9    7    6
 0.2082537813089267    9    9    7    7
 0.04556823985054127    9    9    8    4
 0.2227574776203091    9    9    8    8
 0.05312604590161678    9    9    9    5
 0.2477001229365423    9    9    9    9
 -0.03920379382774327   10    1    1    1
 0.00467279423759603   10    1    2    1
 0.004129591243663378   10    1    2    2
 0.0009864019463824592   10    1    3    1
 -0.000747923362553768   10    1    3    2
 -0.002977771256504491   10    1    3    3
 -2.769417872849458e-06   10    1    4    4
 -2.769417872850882e-06   10    1    5    5
 -0.0009341439705809358   10    1    6    1
 -0.001023542799742641   10    1    6    2
 -0.000673311685290618   10    1    6    3
 0.0001752429975392457   10    1    6    6
 -0.000711940484442833   10    1    7    1
 0.0001840755453553899   10    1    7    2
 0.002939293632553257   10    1    7    3
 0.00218290402503402   10    1    7    6
 -0.004745995686650932   10    1    7    7
 -0.0002774353740500029   10    1    8    4
 -0.0009996678431469857   10    1    8    8
 -0.0002774353740500031   10    1    9    5
 -0.0009996678431469818   10    1    9    9
 0.003838608163765818   10    1   10    1
 0.04177730739605394   10    2    1    1
 -0.001819090229089094   10    2    2    1
 -0.05286397927125869   10    2    2    2
 -0.0001543971144132266   10    2    3    1
 0.0135060493871623   10    2    3    2
 0.01168164795923512   10    2    3    3
 0.007290701205240845   10    2    4    4
 0.007290701205240846   10    2    5    5
 0.0003487750463379046   10    2    6    1
 0.01497040318639203   10    2    6    2
 0.001726447424981745   10    2    6    3
 -0.007786685521838921   10    2    6    6
 0.0005642113263341235   10    2    7    1
 -0.002391913197662046   10    2    7    2
 -0.006296306791749654   10    2    7    3
 -0.007999088771674795   10    2    7    6
 0.01486275236371083   10    2    7    7
 0.00801618453533118   10    2    8    4
 0.02152881460509561   10    2    8    8
 0.008016184535331178   10    2    9    5
 0.02152881460509563   10    2    9    9
 0.0001100495972124279   10    2   10    1
 0.0337125208246379   10    2   10    2
 0.0008755370668111804   10    3    1    1
 0.001618800833506172   10    3    2    1
 0.03242436707112897   10    3    2    2
 -0.001350296228089143   10    3    3    1
 -0.004499421188365364   10    3    3    2
 -0.02485363498220608   10    3    3    3
 0.001796168074398518   10    3    4    4
 0.001796168074398509   10    3    5    5
 -0.001407267609896829   10    3    6    1
 -0.004680427877523788   10    3    6    2
 0.002142108434524616   10    3    6    3
 0.006213653153851418   10    3    6    6
 0.002293416132999717   10    3    7    1
 0.0005076373295990392   10    3    7    2
 0.01006641861499963   10    3    7    3
 0.01302552517301844   10    3    7    6
 -0.01807511327758749   10    3    7    7
 0.0003863517821115392   10    3    8    4
 0.002241621347722901   10    3    8    8
 0.0003863517821115438   10    3    9    5
 0.002241621347722928   10    3    9    9
 0.002488367239690733   10    3   10    1
 -0.004005774487383228   10    3   10    2
 0.023632070693703   10    3   10    3
 0.000564482246240762   10    4    4    1
 0.004310441960490578   10    4    4    2
 0.005788274289919822   10    4    4    3
 0.004472825116175585   10    4    6    4
 0.0008354183105952505   10    4    7    4
 0.002554544545688078   10    4    8    1
 0.006587232862671814   10    4    8    2
 0.005405980894212133   10    4    8    3
 0.002996954734947031   10    4    8    6
 -0.006857695015502421   10    4    8    7
 0.007288496408084006   10    4   10    4
 0.0005644822462407612   10    5    5    1
 0.004310441960490569   10    5    5    2
 0.005788274289919814   10    5    5    3
 0.004472825116175577   10    5    6    5
 0.0008354183105952504   10    5    7    5
 0.002554544545688076   10    5    9    1
 0.006587232862671816   10    5    9    2
 0.005405980894212126   10    5    9    3
 0.002996954734947027   10    5    9    6
 -0.006857695015502423   10    5    9    7
 0.007288496408083992   10    5   10    5
 0.008401095242368338   10    6    1    1
 0.0008233667584365286   10    6    2    1
 0.02633734025586754   10    6    2    2
 -0.000266464281765805   10    6    3    1
 -0.00160938733303111   10    6    3    2
 0.007094714604091486   10    6    3    3
 0.008071465596723405   10    6    4    4
 0.008071465596723403   10    6    5    5
 -0.0004395360692161105   10    6    6    1
 -0.005564950700595207   10    6    6    2
 0.002527481331059148   10    6    6    3
 0.003006549520103148   10    6    6    6
 0.0004706638941029936   10    6    7    1
 -0.001676015815549985   10    6    7    2
 0.001493484991719443   10    6    7    3
 -0.0004184589749876809   10    6    7    6
 0.004546977943076029   10    6    7    7
 0.004853411102882711   10    6    8    4
 0.01218820225169988   10    6    8    8
 0.004853411102882713   10    6    9    5
 0.0121882022516999   10    6    9    9
 0.001026576498565719   10    6   10    1
 -0.001346019510167266   10    6   10    2
 0.00572755919599168   10    6   10    3
 0.006726810240406758   10    6   10    6
 0.01055462763108701   10    7    1    1
 -0.001571889514126882   10    7    2    1
 -0.009115676724579578   10    7    2    2
 0.001220374423932174   10    7    3    1
 0.001706336212689831   10    7    3    2
 0.01956546157368252   10    7    3    3
 0.001631333289715066   10    7    4    4
 0.001631333289715073   10    7    5    5
 0.001320567035102052   10    7    6    1
 0.0008495428277041256   10    7    6    2
 0.002532194461808237   10    7    6    3
 -0.0006813124919178499   10    7    6    6
 -0.002165558369785711   10    7    7    1
 -0.0005166498602416382   10    7    7    2
 -0.0123152091287865   10    7    7    3
 -0.00961933743516033   10    7    7    6
 0.02038553271456525   10    7    7    7
 0.001578415529154785   10    7    8    4
 0.002743512290279007   10    7    8    8
 0.001578415529154787   10    7    9    5
 0.002743512290278996   10    7    9    9
 -0.002849597762357497   10    7   10    1
 -0.0006484700618983423   10    7   10    2
 -0.0165246989183177   10    7   10    3
 -0.003975336719967235   10    7   10    6
 0.01605397555251345   10    7   10    7
 0.001382581880427525   10    8    4    1
 0.009074558160975308   10    8    4    2
 0.01163334685871731   10    8    4    3
 0.009683547100483747   10    8    6    4
 0.002267043140508789   10    8    7    4
 0.0064371099136355   10    8    8    1
 0.01419454783448424   10    8    8    2
 0.01077212186471482   10    8    8    3
 0.004243042396147235   10    8    8    6
 -0.01608453275865064   10    8    8    7
 0.01219071882169497   10    8   10    4
 0.02493604521655406   10    8   10    8
 0.001382581880427525   10    9    5    1
 0.009074558160975306   10    9    5    2
 0.01163334685871732   10    9    5    3
 0.009683547100483749   10    9    6    5
 0.002267043140508787   10    9    7    5
 0.006437109913635505   10    9    9    1
 0.01419454783448427   10    9    9    2
 0.01077212186471482   10    9    9    3
 0.00424304239614724   10    9    9    6
 -0.01608453275865066   10    9    9    7
 0.01219071882169497   10    9   10    5
 0.02493604521655407   10    9   10    9
 0.3171372778762977   10   10    1    1
 -0.001162227866826732   10   10    2    1
 0.2664440800317034   10   10    2    2
 -0.0004923489334743362   10   10    3    1
 -0.003885290855365152   10   10    3    2
 0.1975664938391212   10   10    3    3
 0.1611958833570458   10   10    4    4
 0.1611958833570457   10   10    5    5
 -0.0001579746578500938   10   10    6    1
 -0.02058965869675924   10   10    6    2
 0.02902897151587797   10   10    6    3
 0.1574495956019503   10   10    6    6
 0.0010312444294921   10   10    7    1
 -0.01392360690813909   10   10    7    2
 -0.05269272563529659   10   10    7    3
 -0.01853812465059365   10   10    7    6
 0.2112051120893268   10   10    7    7
 0.0498330289502054   10   10    8    4
 0.2318859580054846   10   10    8    8
 0.04983302895020546   10   10    9    5
 0.2318859580054847   10   10    9    9
 -0.0007063066042991302   10   10   10    1
 0.00541775998763682   10   10   10    2
 -0.001749210076718683   10   10   10    3
 0.01372773882799879   10   10   10    6
 0.00910481918604002   10   10   10    7
 0.2548737966770747   10   10   10   10
 0.0001695139896344943   11    1    5    1
 0.0004829716424632073   11    1    5    2
 -2.249994672419973e-05   11    1    5    3
 0.0001290600632113944   11    1    6    5
 0.0001768017875843656   11    1    7    5
 0.001031755655357385   11    1    9    1
 0.001137731681869448   11    1    9    2
 -0.0001300377349517374   11    1    9    3
 -0.0003038295824529684   11    1    9    6
 9.730118902397239e-05   11    1    9    7
 0.0004965872834258112   11    1   10    5
 0.001386342479358368   11    1   10    9
 0.0004538004582010094   11    1   11    1
 0.0009005311877182885   11    2    5    1
 0.01128729573258156   11    2    5    2
 0.005555653658580111   11    2    5    3
 0.008384447911477031   11    2    6    5
 0.004167680295246018   11    2    7    5
 0.004258595318481107   11    2    9    1
 0.0157827042369371   11    2    9    2
 0.004121605201255627   11    2    9    3
 -0.0007184500637427555   11    2    9    6
 -0.008272877722568787   11    2    9    7
 0.006752613941615277   11    2   10    5
 0.0155670854546764   11    2   10    9
 0.001673730697499774   11    2   11    1
 0.03196156766262173   11    2   11    2
 -0.0006916724377349934   11    3    5    1
 -0.003527934915015078   11    3    5    2
 -0.01491637626563709   11    3    5    3
 -0.003883410005039441   11    3    6    5
 0.0004331392618342443   11    3    7    5
 -0.002917839866219408   11    3    9    1
 -0.004664738691523552   11    3    9    2
 -0.01203366902752743   11    3    9    3
 -0.005549009251616357   11    3    9    6
 0.01608333812089693   11    3    9    7
 -0.001268136429439584   11    3   10    5
 -0.004117956157480226   11    3   10    9
 0.0003653210348453474   11    3   11    1
 -0.002677450392329597   11    3   11    2
 0.01719743985013686   11    3   11    3
 -9.762640599605279e-05   11    4    5    4
 -0.000276640789319767   11    4    8    5
 -0.000276640789319764   11    4    9    4
 -0.0004048748814680847   11    4    9    8
 0.002311551895250231   11    4   11    4
 0.003188257058389452   11    5    1    1
 0.001468632353035694   11    5    2    1
 0.0327906404181283   11    5    2    2
 -0.001156425990148978   11    5    3    1
 -0.00501034113158696   11    5    3    2
 -0.01861225613670865   11    5    3    3
 -0.0002665494265365778   11    5    4    4
 -0.0004618022385286987   11    5    5    5
 -0.001255499038557748   11    5    6    1
 -0.004359723589022682   11    5    6    2
 0.0006475244235411282   11    5    6    3
 0.008333071085134473   11    5    6    6
 0.001933207576687217   11    5    7    1
 0.00129055460721905   11    5    7    2
 0.006311330971856958   11    5    7    3
 0.01126808273602546   11    5    7    6
 -0.01239442414907712   11    5    7    7
 -0.001442972268237739   11    5    8    4
 -0.001601878132883945   11    5    8    8
 -0.001996253846877266   11    5    9    5
 -0.002411627895820091   11    5    9    9
 0.001586927824227392   11    5   10    1
 -0.004062075744349671   11    5   10    2
 0.01175767001897981   11    5   10    3
 0.002048038225241397   11    5   10    6
 -0.007325471178797433   11    5   10    7
 0.003131326948812435   11    5   10   10
 0.01569748054233103   11    5   11    5
 -0.0002862346497217777   11    6    5    1
 0.0005316634218709102   11    6    5    2
 -0.001193466827060215   11    6    5    3
 0.00198726079917233   11    6    6    5
 0.003357085753977974   11    6    7    5
 -0.001314464499620908   11    6    9    1
 -0.001400152972571217   11    6    9    2
 -0.003164560950642985   11    6    9    3
 -0.001692292175074366   11    6    9    6
 0.003635623718776562   11    6    9    7
 0.0004638787928989937   11    6   10    5
 0.0003929201056371693   11    6   10    9
 -1.118446584551868e-05   11    6   11    1
 -0.0001290180165808033   11    6   11    2
 0.004102770569034315   11    6   11    3
 0.003355215160634094   11    6   11    6
 0.0006766637286334984   11    7    5    1
 0.003088972707066713   11    7    5    2
 0.009295841226130657   11    7    5    3
 0.005246094188370076   11    7    6    5
 -0.001719627296548438   11    7    7    5
 0.002934722530537868   11    7    9    1
 0.003462798347389503   11    7    9    2
 0.01089953513141981   11    7    9    3
 0.004738029240171721   11    7    9    6
 -0.01414037648707746   11    7    9    7
 0.001662674307858485   11    7   10    5
 0.003496969146455627   11    7   10    9
 -0.000556469677854735   11    7   11    1
 0.001526145662477558   11    7   11    2
 -0.01219390753395833   11    7   11    3
 -0.002712062278532128   11    7   11    6
 0.01209907585732804   11    7   11    7
 -0.0002533310801853706   11    8    5    4
 -0.000441094521299646   11    8    8    5
 -0.0004410945212996421   11    8    9    4
 -0.0005451672898677387   11    8    9    8
 0.002766835982405478   11    8   11    4
 0.004421577598842734   11    8   11    8
 0.009730636291381057   11    9    1    1
 0.002590096813081544   11    9    2    1
 0.04469389577507463   11    9    2    2
 -0.002289786074444462   11    9    3    1
 -0.006640673260912016   11    9    3    2
 -0.02331912940804985   11    9    3    3
 -0.00131229101096998   11    9    4    4
 -0.001818953171340721   11    9    5    5
 -0.002455348824936228   11    9    6    1
 -0.008566855858424557   11    9    6    2
 -0.001059997870279351   11    9    6    3
 0.006777322377606677   11    9    6    6
 0.003986366972989436   11    9    7    1
 0.0005896394706257665   11    9    7    2
 0.01239182264104229   11    9    7    3
 0.01310181462855619   11    9    7    6
 -0.0203142862549535   11    9    7    7
 -0.001979134268865753   11    9    8    4
 -0.002442176451406253   11    9    8    8
 -0.002861323311465028   11    9    9    5
 -0.003532511031141715   11    9    9    9
 0.003125734367761448   11    9   10    1
 -0.002826053056154562   11    9   10    2
 0.01535470907144848   11    9   10    3
 0.003808026369320797   11    9   10    6
 -0.01152996732671407   11    9   10    7
 0.002976640779323345   11    9   10   10
 0.019505646474713   11    9   11    5
 0.02962568728774938   11    9   11    9
 0.0008344178216147584   11   10    5    1
 0.005234072328664159   11   10    5    2
 0.009023229723343899   11   10    5    3
 0.005099194321849097   11   10    6    5
 0.000678417688157391   11   10    7    5
 0.003875537177029908   11   10    9    1
 0.0085235158349313   11   10    9    2
 0.00796997120546919   11   10    9    3
 0.003305324197984696   11   10    9    6
 -0.01116971634446894   11   10    9    7
 0.005317520538013313   11   10   10    5
 0.01097767708708387   11   10   10    9
 0.0006852121895930664   11   10   11    1
 0.009384720412660889   11   10   11    2
 -0.007109840637645388   11   10   11    3
 -0.0004285954119010934   11   10   11    6
 0.005939872035617017   11   10   11    7
 0.01339730240390133   11   10   11   10
 0.3007278303403766   11   11    1    1
 0.0005355535158238991   11   11    2    1
 0.2785139440893676   11   11    2    2
 -0.0007873786056138868   11   11    3    1
 -0.005438631095181038   11   11    3    2
 0.1933530696205721   11   11    3    3