&FCI NORB=       6,NELEC=      6,MS2=       0,
 ORBSYM=    1,    1,    1,    1,    1,    1, 
 ISYM=  1 UHF=.FALSE.
 &END
   0.924847242549          1      1      1      1
  -0.178344494201E-01      1      1      1      2
   0.336816962913E-02      1      1      1      3
  -0.190650899248E-02      1      1      1      4
   0.336816964347E-02      1      1      1      5
  -0.178344494725E-01      1      1      1      6
  -0.178344494201E-01      1      2      1      1
   0.113970942136E-01      1      2      1      2
  -0.116357418808E-02      1      2      1      3
   0.143518126193E-03      1      2      1      4
   0.259536540730E-03      1      2      1      5
  -0.118269116537E-02      1      2      1      6
   0.336816962913E-02      1      3      1      1
  -0.116357418808E-02      1      3      1      2
   0.478999958733E-03      1      3      1      3
  -0.602876419739E-04      1      3      1      4
  -0.417412084042E-04      1      3      1      5
   0.259536578157E-03      1      3      1      6
  -0.190650899248E-02      1      4      1      1
   0.143518126193E-03      1      4      1      2
  -0.602876419739E-04      1      4      1      3
   0.355831842283E-04      1      4      1      4
  -0.602876501197E-04      1      4      1      5
   0.143518184689E-03      1      4      1      6
   0.336816964347E-02      1      5      1      1
   0.259536540730E-03      1      5      1      2
  -0.417412084042E-04      1      5      1      3
  -0.602876501197E-04      1      5      1      4
   0.478999950831E-03      1      5      1      5
  -0.116357415606E-02      1      5      1      6
  -0.178344494725E-01      1      6      1      1
  -0.118269116537E-02      1      6      1      2
   0.259536578157E-03      1      6      1      3
   0.143518184689E-03      1      6      1      4
  -0.116357415606E-02      1      6      1      5
   0.113970942108E-01      1      6      1      6
   0.489259259213          1      1      2      2
  -0.147471186577E-01      1      1      2      3
   0.283151249581E-02      1      1      2      4
   0.321709158624E-03      1      1      2      5
  -0.543570106830E-02      1      1      2      6
  -0.178344511804E-01      1      2      2      2
  -0.118269112654E-02      1      2      2      3
   0.259536503222E-03      1      2      2      4
   0.143518053154E-03      1      2      2      5
  -0.116357420730E-02      1      2      2      6
  -0.543570106933E-02      1      3      2      2
  -0.116357422789E-02      1      3      2      3
   0.473324571196E-04      1      3      2      4
   0.473324609000E-04      1      3      2      6
   0.321708261242E-03      1      4      2      2
   0.163547275330E-03      1      4      2      3
  -0.602876539083E-04      1      4      2      4
   0.283151232926E-02      1      5      2      2
  -0.211886478978E-03      1      5      2      3
   0.719900158561E-04      1      5      2      4
  -0.602876412406E-04      1      5      2      5
   0.473324781621E-04      1      5      2      6
  -0.147471178621E-01      1      6      2      2
   0.957188686341E-03      1      6      2      3
  -0.211886470046E-03      1      6      2      4
   0.163547251384E-03      1      6      2      5
  -0.116357420800E-02      1      6      2      6
   0.287925085354          1      1      3      3
  -0.542238341754E-02      1      1      3      4
   0.136684035105E-02      1      1      3      5
   0.321709821695E-03      1      1      3      6
  -0.147471187659E-01      1      2      3      3
   0.957188684400E-03      1      2      3      4
  -0.211886508489E-03      1      2      3      5
   0.163547246149E-03      1      2      3      6
   0.336817227910E-02      1      3      3      3
   0.259536566701E-03      1      3      3      4
  -0.417411985413E-04      1      3      3      5
  -0.602876465184E-04      1      3      3      6
   0.321710233488E-03      1      4      3      3
   0.143518064120E-03      1      4      3      4
   0.136684033027E-02      1      5      3      3
  -0.211886531713E-03      1      5      3      4
  -0.417412079717E-04      1      5      3      5
  -0.542238345380E-02      1      6      3      3
   0.392896638100E-03      1      6      3      4
  -0.211886496242E-03      1      6      3      5
   0.143518019648E-03      1      6      3      6
   0.243120735001          1      1      4      4
  -0.542238367332E-02      1      1      4      5
   0.283151363701E-02      1      1      4      6
  -0.542238362830E-02      1      2      4      4
   0.392896640185E-03      1      2      4      5
  -0.211886511044E-03      1      2      4      6
   0.283151342725E-02      1      3      4      4
  -0.211886525186E-03      1      3      4      5
   0.719900175422E-04      1      3      4      6
  -0.190650244122E-02      1      4      4      4
   0.143518056375E-03      1      4      4      5
  -0.602876441805E-04      1      4      4      6
   0.283151342628E-02      1      5      4      4
   0.259536560272E-03      1      5      4      5
   0.473324288748E-04      1      5      4      6
  -0.542238364953E-02      1      6      4      4
   0.957188718845E-03      1      6      4      5
   0.259536457443E-03      1      6      4      6
   0.287925085243          1      1      5      5
  -0.147471181285E-01      1      1      5      6
  -0.542238339826E-02      1      2      5      5
   0.957188665894E-03      1      2      5      6
   0.136684028407E-02      1      3      5      5
  -0.211886478497E-03      1      3      5      6
   0.321710188510E-03      1      4      5      5
   0.163547269595E-03      1      4      5      6
   0.336817226246E-02      1      5      5      5
  -0.116357425565E-02      1      5      5      6
  -0.147471187921E-01      1      6      5      5
  -0.118269112670E-02      1      6      5      6
   0.489259259233          1      1      6      6
  -0.147471178391E-01      1      2      6      6
   0.283151231990E-02      1      3      6      6
   0.321708282055E-03      1      4      6      6
  -0.543570105154E-02      1      5      6      6
  -0.178344512149E-01      1      6      6      6
   0.489259259213          2      2      1      1
  -0.178344511804E-01      2      2      1      2
  -0.543570106933E-02      2      2      1      3
   0.321708261242E-03      2      2      1      4
   0.283151232926E-02      2      2      1      5
  -0.147471178621E-01      2      2      1      6
  -0.147471186577E-01      2      3      1      1
  -0.118269112654E-02      2      3      1      2
  -0.116357422789E-02      2      3      1      3
   0.163547275330E-03      2      3      1      4
  -0.211886478978E-03      2      3      1      5
   0.957188686341E-03      2      3      1      6
   0.283151249581E-02      2      4      1      1
   0.259536503222E-03      2      4      1      2
   0.473324571196E-04      2      4      1      3
  -0.602876539083E-04      2      4      1      4
   0.719900158561E-04      2      4      1      5
  -0.211886470046E-03      2      4      1      6
   0.321709158624E-03      2      5      1      1
   0.143518053154E-03      2      5      1      2
  -0.602876412406E-04      2      5      1      5
   0.163547251384E-03      2      5      1      6
  -0.543570106830E-02      2      6      1      1
  -0.116357420730E-02      2      6      1      2
   0.473324609000E-04      2      6      1      3
   0.473324781621E-04      2      6      1      5
  -0.116357420800E-02      2      6      1      6
   0.924847241476          2      2      2      2
  -0.178344515821E-01      2      2      2      3
   0.336816970603E-02      2      2      2      4
  -0.190650605171E-02      2      2      2      5
   0.336817179132E-02      2      2      2      6
  -0.178344515821E-01      2      3      2      2
   0.113970943537E-01      2      3      2      3
  -0.116357418766E-02      2      3      2      4
   0.143518105480E-03      2      3      2      5
   0.259536495118E-03      2      3      2      6
   0.336816970603E-02      2      4      2      2
  -0.116357418766E-02      2      4      2      3
   0.478999938093E-03      2      4      2      4
  -0.602876362699E-04      2      4      2      5
  -0.417411959202E-04      2      4      2      6
  -0.190650605171E-02      2      5      2      2
   0.143518105480E-03      2      5      2      3
  -0.602876362699E-04      2      5      2      4
   0.355831703065E-04      2      5      2      5
  -0.602876386209E-04      2      5      2      6
   0.336817179132E-02      2      6      2      2
   0.259536495118E-03      2      6      2      3
  -0.417411959202E-04      2      6      2      4
  -0.602876386209E-04      2      6      2      5
   0.478999941575E-03      2      6      2      6
   0.489259259566          2      2      3      3
  -0.147471178290E-01      2      2      3      4
   0.283151322353E-02      2      2      3      5
   0.321709160582E-03      2      2      3      6
  -0.178344505538E-01      2      3      3      3
  -0.118269113134E-02      2      3      3      4
   0.259536489035E-03      2      3      3      5
   0.143518095506E-03      2      3      3      6
  -0.543570102628E-02      2      4      3      3
  -0.116357421990E-02      2      4      3      4
   0.473324257449E-04      2      4      3      5
   0.321709117885E-03      2      5      3      3
   0.163547236629E-03      2      5      3      4
  -0.602876362466E-04      2      5      3      5
   0.283151320777E-02      2      6      3      3
  -0.211886501253E-03      2      6      3      4
   0.719900165736E-04      2      6      3      5
  -0.602876321682E-04      2      6      3      6
   0.287925085112          2      2      4      4
  -0.542238344849E-02      2      2      4      5
   0.136684047034E-02      2      2      4      6
  -0.147471182339E-01      2      3      4      4
   0.957188657632E-03      2      3      4      5
  -0.211886485104E-03      2      3      4      6
   0.336817219753E-02      2      4      4      4
   0.259536524264E-03      2      4      4      5
  -0.417411969630E-04      2      4      4      6
   0.321709751363E-03      2      5      4      4
   0.143518064839E-03      2      5      4      5
   0.136684034139E-02      2      6      4      4
  -0.211886497096E-03      2      6      4      5
  -0.417411955129E-04      2      6      4      6
   0.243120734844          2      2      5      5
  -0.542238345041E-02      2      2      5      6
  -0.542238349763E-02      2      3      5      5
   0.392896637066E-03      2      3      5      6
   0.283151333518E-02      2      4      5      5
  -0.211886525334E-03      2      4      5      6
  -0.190650389868E-02      2      5      5      5
   0.143518030971E-03      2      5      5      6
   0.283151256690E-02      2      6      5      5
   0.259536555113E-03      2      6      5      6
   0.287925084929          2      2      6      6
  -0.542238356182E-02      2      3      6      6
   0.136684039403E-02      2      4      6      6
   0.321709790277E-03      2      5      6      6
   0.336817027486E-02      2      6      6      6
   0.287925085354          3      3      1      1
  -0.147471187659E-01      3      3      1      2
   0.336817227910E-02      3      3      1      3
   0.321710233488E-03      3      3      1      4
   0.136684033027E-02      3      3      1      5
  -0.542238345380E-02      3      3      1      6
  -0.542238341754E-02      3      4      1      1
   0.957188684400E-03      3      4      1      2
   0.259536566701E-03      3      4      1      3
   0.143518064120E-03      3      4      1      4
  -0.211886531713E-03      3      4      1      5
   0.392896638100E-03      3      4      1      6
   0.136684035105E-02      3      5      1      1
  -0.211886508489E-03      3      5      1      2
  -0.417411985413E-04      3      5      1      3
  -0.417412079717E-04      3      5      1      5
  -0.211886496242E-03      3      5      1      6
   0.321709821695E-03      3      6      1      1
   0.163547246149E-03      3      6      1      2
  -0.602876465184E-04      3      6      1      3
   0.143518019648E-03      3      6      1      6
   0.489259259566          3      3      2      2
  -0.178344505538E-01      3      3      2      3
  -0.543570102628E-02      3      3      2      4
   0.321709117885E-03      3      3      2      5
   0.283151320777E-02      3      3      2      6
  -0.147471178290E-01      3      4      2      2
  -0.118269113134E-02      3      4      2      3
  -0.116357421990E-02      3      4      2      4
   0.163547236629E-03      3      4      2      5
  -0.211886501253E-03      3      4      2      6
   0.283151322353E-02      3      5      2      2
   0.259536489035E-03      3      5      2      3
   0.473324257449E-04      3      5      2      4
  -0.602876362466E-04      3      5      2      5
   0.719900165736E-04      3      5      2      6
   0.321709160582E-03      3      6      2      2
   0.143518095506E-03      3      6      2      3
  -0.602876321682E-04      3      6      2      6
   0.924847241884          3      3      3      3
  -0.178344494281E-01      3      3      3      4
   0.336817184959E-02      3      3      3      5
  -0.190650605704E-02      3      3      3      6
  -0.178344494281E-01      3      4      3      3
   0.113970942228E-01      3      4      3      4
  -0.116357416621E-02      3      4      3      5
   0.143518044544E-03      3      4      3      6
   0.336817184959E-02      3      5      3      3
  -0.116357416621E-02      3      5      3      4
   0.478999951482E-03      3      5      3      5
  -0.602876398519E-04      3      5      3      6
  -0.190650605704E-02      3      6      3      3
   0.143518044544E-03      3      6      3      4
  -0.602876398519E-04      3      6      3      5
   0.355831701882E-04      3      6      3      6
   0.489259259299          3      3      4      4
  -0.147471178491E-01      3      3      4      5
   0.283151239572E-02      3      3      4      6
  -0.178344510756E-01      3      4      4      4
  -0.118269115860E-02      3      4      4      5
   0.259536539541E-03      3      4      4      6
  -0.543570101666E-02      3      5      4      4
  -0.116357425311E-02      3      5      4      5
   0.473324868936E-04      3      5      4      6
   0.321709177979E-03      3      6      4      4
   0.163547255076E-03      3      6      4      5
  -0.602876456820E-04      3      6      4      6
   0.287925085039          3      3      5      5
  -0.542238356536E-02      3      3      5      6
  -0.147471186605E-01      3      4      5      5
   0.957188726718E-03      3      4      5      6
   0.336817034073E-02      3      5      5      5
   0.259536563512E-03      3      5      5      6
   0.321709859601E-03      3      6      5      5
   0.143518034093E-03      3      6      5      6
   0.243120734917          3      3      6      6
  -0.542238359645E-02      3      4      6      6
   0.283151264345E-02      3      5      6      6
  -0.190650385410E-02      3      6      6      6
   0.243120735001          4      4      1      1
  -0.542238362830E-02      4      4      1      2
   0.283151342725E-02      4      4      1      3
  -0.190650244122E-02      4      4      1      4
   0.283151342628E-02      4      4      1      5
  -0.542238364953E-02      4      4      1      6
  -0.542238367332E-02      4      5      1      1
   0.392896640185E-03      4      5      1      2
  -0.211886525186E-03      4      5      1      3
   0.143518056375E-03      4      5      1      4
   0.259536560272E-03      4      5      1      5
   0.957188718845E-03      4      5      1      6
   0.283151363701E-02      4      6      1      1
  -0.211886511044E-03      4      6      1      2
   0.719900175422E-04      4      6      1      3
  -0.602876441805E-04      4      6      1      4
   0.473324288748E-04      4      6      1      5
   0.259536457443E-03      4      6      1      6
   0.287925085112          4      4      2      2
  -0.147471182339E-01      4      4      2      3
   0.336817219753E-02      4      4      2      4
   0.321709751363E-03      4      4      2      5
   0.136684034139E-02      4      4      2      6
  -0.542238344849E-02      4      5      2      2
   0.957188657632E-03      4      5      2      3
   0.259536524264E-03      4      5      2      4
   0.143518064839E-03      4      5      2      5
  -0.211886497096E-03      4      5      2      6
   0.136684047034E-02      4      6      2      2
  -0.211886485104E-03      4      6      2      3
  -0.417411969630E-04      4      6      2      4
  -0.417411955129E-04      4      6      2      6
   0.489259259299          4      4      3      3
  -0.178344510756E-01      4      4      3      4
  -0.543570101666E-02      4      4      3      5
   0.321709177979E-03      4      4      3      6
  -0.147471178491E-01      4      5      3      3
  -0.118269115860E-02      4      5      3      4
  -0.116357425311E-02      4      5      3      5
   0.163547255076E-03      4      5      3      6
   0.283151239572E-02      4      6      3      3
   0.259536539541E-03      4      6      3      4
   0.473324868936E-04      4      6      3      5
  -0.602876456820E-04      4      6      3      6
   0.924847242274          4      4      4      4
  -0.178344495302E-01      4      4      4      5
   0.336816973788E-02      4      4      4      6
  -0.178344495302E-01      4      5      4      4
   0.113970941895E-01      4      5      4      5
  -0.116357419010E-02      4      5      4      6
   0.336816973788E-02      4      6      4      4
  -0.116357419010E-02      4      6      4      5
   0.478999951210E-03      4      6      4      6
   0.489259259011          4      4      5      5
  -0.147471186027E-01      4      4      5      6
  -0.178344512444E-01      4      5      5      5
  -0.118269111037E-02      4      5      5      6
  -0.543570088207E-02      4      6      5      5
  -0.116357422084E-02      4      6      5      6
   0.287925085252          4      4      6      6
  -0.147471187154E-01      4      5      6      6
   0.336817245420E-02      4      6      6      6
   0.287925085243          5      5      1      1
  -0.542238339826E-02      5      5      1      2
   0.136684028407E-02      5      5      1      3
   0.321710188510E-03      5      5      1      4
   0.336817226246E-02      5      5      1      5
  -0.147471187921E-01      5      5      1      6
  -0.147471181285E-01      5      6      1      1
   0.957188665894E-03      5      6      1      2
  -0.211886478497E-03      5      6      1      3
   0.163547269595E-03      5      6      1      4
  -0.116357425565E-02      5      6      1      5
  -0.118269112670E-02      5      6      1      6
   0.243120734844          5      5      2      2
  -0.542238349763E-02      5      5      2      3
   0.283151333518E-02      5      5      2      4
  -0.190650389868E-02      5      5      2      5
   0.283151256690E-02      5      5      2      6
  -0.542238345041E-02      5      6      2      2
   0.392896637066E-03      5      6      2      3
  -0.211886525334E-03      5      6      2      4
   0.143518030971E-03      5      6      2      5
   0.259536555113E-03      5      6      2      6
   0.287925085039          5      5      3      3
  -0.147471186605E-01      5      5      3      4
   0.336817034073E-02      5      5      3      5
   0.321709859601E-03      5      5      3      6
  -0.542238356536E-02      5      6      3      3
   0.957188726718E-03      5      6      3      4
   0.259536563512E-03      5      6      3      5
   0.143518034093E-03      5      6      3      6
   0.489259259011          5      5      4      4
  -0.178344512444E-01      5      5      4      5
  -0.543570088207E-02      5      5      4      6
  -0.147471186027E-01      5      6      4      4
  -0.118269111037E-02      5      6      4      5
  -0.116357422084E-02      5      6      4      6
   0.924847241476          5      5      5      5
  -0.178344515207E-01      5      5      5      6
  -0.178344515207E-01      5      6      5      5
   0.113970943519E-01      5      6      5      6
   0.489259259513          5      5      6      6
  -0.178344505352E-01      5      6      6      6
   0.489259259233          6      6      1      1
  -0.147471178391E-01      6      6      1      2
   0.283151231990E-02      6      6      1      3
   0.321708282055E-03      6      6      1      4
  -0.543570105154E-02      6      6      1      5
  -0.178344512149E-01      6      6      1      6
   0.287925084929          6      6      2      2
  -0.542238356182E-02      6      6      2      3
   0.136684039403E-02      6      6      2      4
   0.321709790277E-03      6      6      2      5
   0.336817027486E-02      6      6      2      6
   0.243120734917          6      6      3      3
  -0.542238359645E-02      6      6      3      4
   0.283151264345E-02      6      6      3      5
  -0.190650385410E-02      6      6      3      6
   0.287925085252          6      6      4      4
  -0.147471187154E-01      6      6      4      5
   0.336817245420E-02      6      6      4      6
   0.489259259513          6      6      5      5
  -0.178344505352E-01      6      6      5      6
   0.924847241646          6      6      6      6
   -2.04823183323          1      1      0      0
  -0.299303901757          1      2      0      0
   0.775036976533E-01      1      3      0      0
  -0.367383634381E-01      1      4      0      0
   0.775036979232E-01      1      5      0      0
  -0.299303902733          1      6      0      0
   -2.04823183739          2      2      0      0
  -0.299303900942          2      3      0      0
   0.775036984575E-01      2      4      0      0
  -0.367383618656E-01      2      5      0      0
   0.775036966507E-01      2      6      0      0
   -2.04823183415          3      3      0      0
  -0.299303901300          3      4      0      0
   0.775036975592E-01      3      5      0      0
  -0.367383613138E-01      3      6      0      0
   -2.04823183562          4      4      0      0
  -0.299303902829          4      5      0      0
   0.775037010651E-01      4      6      0      0
   -2.04823183744          5      5      0      0
  -0.299303900049          5      6      0      0
   -2.04823183601          6      6      0      0
