&FCI NORB=    6 ,NELEC=    2 ,MS2=  0
ORBSYM=  1  1  1  1  1  1 
 ISYM=1 UHF=.TRUE.
&END
   8.0000000000000000                         1                    1                    1                    1
   8.0000000000000000                         2                    2                    1                    1
   8.0000000000000000                         2                    2                    2                    2
   8.0000000000000000                         3                    3                    3                    3
   8.0000000000000000                         4                    4                    3                    3
   8.0000000000000000                         4                    4                    4                    4
   8.0000000000000000                         5                    5                    5                    5
   8.0000000000000000                         6                    6                    5                    5
   8.0000000000000000                         6                    6                    6                    6
   1.0000000000000000                         3                    1                    0                    0
   1.0000000000000000                         4                    2                    0                    0
   1.0000000000000000                         5                    3                    0                    0
   1.0000000000000000                         6                    4                    0                    0
